ITEM: TIMESTEP
0
ITEM: NUMBER OF ATOMS
3200
ITEM: BOX BOUNDS pp pp pp
0.0000000000000000e+00 7.3029674334022147e+01
0.0000000000000000e+00 7.3029674334022147e+01
-1.8257418583505539e-01 1.8257418583505539e-01
ITEM: ATOMS id type vx vy vz 
1 1 0.909355 1.44638 0 
2 1 0.679416 -0.610503 0 
3 1 1.1468 0.732095 0 
4 1 -0.11335 0.923316 0 
5 1 -1.30499 -0.294637 0 
6 1 1.54082 -1.36315 0 
7 1 -0.494212 1.32088 0 
8 1 -1.54447 0.937389 0 
9 1 -1.60922 -0.63224 0 
10 1 1.09284 -0.599345 0 
11 1 -0.409854 1.59925 0 
12 1 0.626339 -1.05604 0 
13 1 0.0280091 1.41208 0 
14 1 0.706841 0.59401 0 
15 1 -0.132008 0.792726 0 
16 1 -0.379 1.20267 0 
17 1 -1.27396 -1.20191 0 
18 1 -1.4283 -0.488243 0 
19 1 1.08572 1.68744 0 
20 1 -0.742421 -1.29887 0 
21 1 1.68949 0.0604229 0 
22 1 0.896617 -0.1754 0 
23 1 -0.347028 -1.28995 0 
24 1 1.13531 -0.732736 0 
25 1 -0.150487 0.194922 0 
26 1 0.141614 -1.34002 0 
27 1 -0.216939 1.35215 0 
28 1 -0.275205 0.764639 0 
29 1 -1.18977 -0.386657 0 
30 1 -1.1954 -0.845782 0 
31 1 1.14875 -1.28703 0 
32 1 1.24812 0.576735 0 
33 1 -1.38754 -1.58796 0 
34 1 -0.015139 0.662998 0 
35 1 -1.6381 1.6224 0 
36 1 0.283053 0.503106 0 
37 1 -1.66697 0.466111 0 
38 1 -1.2301 1.03557 0 
39 1 0.740793 0.0218383 0 
40 1 1.58929 1.69657 0 
41 1 -1.12647 1.23859 0 
43 1 -0.995225 -1.04155 0 
45 1 0.510691 -1.29708 0 
47 1 0.434304 0.061542 0 
49 1 1.05416 0.640191 0 
51 1 -1.26175 -1.52743 0 
53 1 -0.189868 0.0739784 0 
55 1 -1.01938 0.396349 0 
57 1 -1.23272 -1.31383 0 
59 1 0.211579 0.823997 0 
42 1 -0.528025 0.739039 0 
61 1 -1.20106 1.48041 0 
44 1 -0.109435 0.553904 0 
63 1 0.00819319 -0.759483 0 
65 1 0.0185174 -1.38453 0 
46 1 0.46866 -0.681549 0 
67 1 -1.29361 -0.581076 0 
48 1 1.24753 1.00263 0 
50 1 -0.70481 0.418642 0 
69 1 -0.0978204 0.710301 0 
71 1 -1.63199 -0.182543 0 
52 1 0.969436 1.18945 0 
73 1 0.620436 0.74942 0 
54 1 0.216768 0.973913 0 
56 1 -1.36048 0.53048 0 
75 1 -0.771353 0.0515579 0 
77 1 -1.45458 0.209965 0 
58 1 -1.48799 -0.715998 0 
79 1 1.56983 -1.36532 0 
60 1 -0.40122 0.42079 0 
62 1 1.0695 0.655661 0 
64 1 -0.102588 0.684892 0 
66 1 -0.254282 0.639576 0 
68 1 0.271403 -0.26914 0 
70 1 1.06247 0.957949 0 
72 1 1.61002 -1.53333 0 
74 1 -0.200688 -0.669446 0 
76 1 1.08956 -0.0288892 0 
78 1 -0.88127 -1.40212 0 
80 1 -0.763448 0.549312 0 
81 1 1.36146 0.276203 0 
82 1 0.174774 -1.28624 0 
83 1 -1.52687 0.757502 0 
84 1 1.31552 1.3527 0 
85 1 -1.40263 -0.91369 0 
86 1 -1.43898 1.09664 0 
87 1 -0.654006 0.972905 0 
88 1 0.0355652 -0.46003 0 
89 1 0.835423 -1.20605 0 
90 1 -0.601913 -1.18317 0 
91 1 0.896278 1.09681 0 
92 1 -1.41303 -1.59525 0 
93 1 1.54948 1.36687 0 
94 1 -1.39553 0.0418605 0 
95 1 1.6208 -1.53403 0 
96 1 0.669254 -0.731251 0 
97 1 -0.104357 -1.188 0 
98 1 -1.06937 -0.259606 0 
99 1 -1.16893 1.7208 0 
100 1 0.888952 -0.135351 0 
101 1 -0.438378 -0.65324 0 
103 1 1.39282 1.53989 0 
105 1 -0.443069 0.612637 0 
107 1 1.1495 0.960352 0 
109 1 -1.51523 1.302 0 
111 1 -1.6194 -1.03727 0 
113 1 0.28727 1.71091 0 
115 1 -0.600678 -1.32224 0 
117 1 0.404617 -0.843297 0 
119 1 1.34111 -0.456951 0 
102 1 -0.0173665 1.53676 0 
121 1 -1.23368 -0.019247 0 
104 1 -1.43911 -0.988059 0 
123 1 -1.70713 1.11717 0 
125 1 -0.567866 -0.155243 0 
106 1 0.803156 -0.199521 0 
127 1 -1.73142 0.412044 0 
108 1 1.33207 0.911078 0 
110 1 -0.540856 1.03241 0 
129 1 -0.0553083 1.21879 0 
131 1 1.54353 -1.14004 0 
112 1 -0.882427 0.0501526 0 
133 1 0.393235 -0.570733 0 
114 1 -0.568818 1.26516 0 
116 1 -1.15776 1.25533 0 
135 1 -0.623374 0.342719 0 
137 1 0.938261 -0.334369 0 
118 1 -0.724809 -1.33622 0 
139 1 1.02975 1.41474 0 
120 1 1.66666 -0.502638 0 
122 1 -0.0467829 1.70647 0 
124 1 1.15421 -0.0736106 0 
126 1 -1.60363 -0.711141 0 
128 1 0.130163 1.24485 0 
130 1 1.30138 0.575172 0 
132 1 1.61503 -1.0767 0 
134 1 -1.55595 -0.524798 0 
136 1 -0.110899 0.317279 0 
138 1 -1.30225 0.490127 0 
140 1 0.238532 1.04681 0 
141 1 1.6519 -1.22908 0 
142 1 -1.32504 0.452471 0 
143 1 -0.0815056 -0.235711 0 
144 1 -1.41751 -0.188558 0 
145 1 0.335739 1.33681 0 
146 1 -0.88908 -0.313954 0 
147 1 0.856476 0.848854 0 
148 1 -1.47185 -1.07927 0 
149 1 -0.973647 -0.603879 0 
150 1 1.00009 0.85368 0 
151 1 0.684451 0.433601 0 
152 1 0.243579 -1.18836 0 
153 1 -1.43942 0.73907 0 
154 1 -0.473879 -1.74042 0 
155 1 -1.53465 -1.13839 0 
156 1 -0.869723 1.11985 0 
157 1 1.20855 0.649712 0 
158 1 0.141474 -0.201408 0 
159 1 1.28447 -1.53393 0 
160 1 -0.0242367 1.00467 0 
161 1 -0.66558 1.49955 0 
163 1 -1.66382 1.23448 0 
165 1 -0.0946056 -0.984755 0 
167 1 1.27174 0.443108 0 
169 1 0.13591 0.315971 0 
171 1 0.0538597 0.522122 0 
173 1 -0.779806 0.781263 0 
175 1 -1.28739 -0.648869 0 
177 1 -1.11921 1.364 0 
179 1 -0.058376 -1.57892 0 
162 1 -0.661923 0.262835 0 
181 1 -1.1088 -1.33797 0 
164 1 1.0412 -1.20928 0 
183 1 1.05315 1.01564 0 
185 1 0.00706716 1.21277 0 
166 1 -1.40627 0.506555 0 
187 1 -0.255516 0.804926 0 
168 1 1.00226 -0.932068 0 
170 1 -0.533226 0.401286 0 
189 1 -1.27926 0.20144 0 
191 1 0.824402 1.63297 0 
172 1 0.580241 0.861418 0 
193 1 1.49655 -0.111411 0 
174 1 0.92618 -1.35962 0 
176 1 1.49938 -1.21105 0 
195 1 0.230826 0.408806 0 
197 1 -1.11856 -1.5788 0 
178 1 1.67619 -0.595338 0 
199 1 -1.19498 -0.75254 0 
180 1 1.30722 1.14226 0 
182 1 -0.68048 -1.63274 0 
184 1 -0.154728 -1.42125 0 
186 1 -1.63896 1.00935 0 
188 1 -1.317 -0.256427 0 
190 1 1.62525 0.0835737 0 
192 1 0.192523 0.983719 0 
194 1 -1.33016 1.50814 0 
196 1 -0.816136 -0.320807 0 
198 1 -0.273006 -0.582685 0 
200 1 0.603581 -0.420792 0 
201 1 -1.52563 0.587627 0 
202 1 -0.160413 0.554654 0 
203 1 -1.06131 -0.720453 0 
204 1 1.14558 1.16951 0 
205 1 -1.19304 0.505993 0 
206 1 -1.3523 -1.3833 0 
207 1 -0.0189918 -1.3985 0 
208 1 0.294512 1.52613 0 
209 1 -1.1111 -1.59647 0 
210 1 1.1876 0.342511 0 
211 1 -1.11023 -0.960577 0 
212 1 -1.06969 1.25556 0 
213 1 0.23875 1.23658 0 
214 1 -0.148453 -0.443597 0 
215 1 0.297879 -1.09266 0 
216 1 -0.0771855 -0.767428 0 
217 1 0.549947 0.215139 0 
218 1 0.870007 -1.60432 0 
219 1 -0.139844 1.45433 0 
220 1 0.761632 -1.51464 0 
221 1 -0.214121 -0.0483643 0 
222 1 -1.35831 -1.40012 0 
223 1 0.703143 1.1222 0 
224 1 -0.694421 0.890746 0 
225 1 -1.01563 0.75316 0 
226 1 0.0308507 0.410982 0 
227 1 -0.777542 0.520322 0 
228 1 -0.29763 0.0194546 0 
229 1 -0.817589 -0.352122 0 
230 1 0.0727644 1.30923 0 
231 1 -1.34527 -1.70955 0 
232 1 1.00444 0.972948 0 
233 1 0.444812 -0.965271 0 
234 1 1.41622 1.16285 0 
235 1 -0.840766 0.193807 0 
236 1 -1.60733 -0.222588 0 
237 1 -1.0753 0.937443 0 
238 1 1.6994 -0.607819 0 
239 1 -1.17799 -0.802609 0 
240 1 1.14618 0.804916 0 
241 1 1.08935 0.0337279 0 
243 1 -1.30919 -1.29855 0 
245 1 1.71393 -0.174324 0 
247 1 0.392061 0.586877 0 
249 1 -0.250434 -0.865039 0 
251 1 -0.0145778 -0.354081 0 
253 1 1.71516 -0.310071 0 
255 1 1.21019 0.431336 0 
257 1 0.287787 -0.0481104 0 
259 1 1.35354 -0.419774 0 
242 1 0.867093 1.65901 0 
261 1 -0.617895 -1.6069 0 
244 1 0.191238 0.286231 0 
263 1 1.65243 0.617427 0 
265 1 -1.27102 -0.539272 0 
246 1 0.831644 1.45531 0 
267 1 -1.19438 -1.12264 0 
248 1 0.31861 -0.959063 0 
250 1 0.733663 -1.38636 0 
269 1 -0.106455 -1.60489 0 
271 1 -0.893293 -1.45533 0 
252 1 0.906911 -1.31648 0 
273 1 0.000781215 0.05162 0 
254 1 -0.582069 1.4582 0 
256 1 1.08893 -0.0659468 0 
275 1 1.54982 0.128507 0 
277 1 1.02312 1.34486 0 
258 1 -0.884187 -1.66654 0 
279 1 -1.18254 -0.788634 0 
260 1 0.732138 0.833596 0 
262 1 -0.976578 -1.10902 0 
264 1 -0.00921958 -0.85292 0 
266 1 1.0106 0.0282523 0 
268 1 0.683824 0.335266 0 
270 1 1.27345 1.32344 0 
272 1 1.1869 -0.889282 0 
274 1 -1.00691 1.1112 0 
276 1 1.27891 -0.894622 0 
278 1 0.821139 -0.966264 0 
280 1 -0.564664 1.43246 0 
281 1 0.614643 0.894918 0 
282 1 -0.911671 -0.360937 0 
283 1 1.63229 0.0515795 0 
284 1 1.01004 0.967945 0 
285 1 -0.825978 1.44104 0 
286 1 0.557347 -0.800811 0 
287 1 0.471739 -1.1799 0 
288 1 0.14593 1.54241 0 
289 1 -0.466773 -0.73662 0 
290 1 -0.489995 -0.945367 0 
291 1 -1.08674 0.352486 0 
292 1 -1.1791 1.33728 0 
293 1 -0.485168 0.0786247 0 
294 1 -0.581335 -0.129894 0 
295 1 -1.3349 -1.46148 0 
296 1 0.135537 1.00556 0 
297 1 0.810387 -0.558512 0 
298 1 0.350833 0.770124 0 
299 1 -1.64481 0.269659 0 
300 1 0.680097 0.401587 0 
301 1 -0.587295 0.694888 0 
303 1 0.417434 -1.36247 0 
305 1 -0.873873 1.03037 0 
307 1 0.342854 -0.980045 0 
309 1 1.49304 0.114775 0 
311 1 0.371886 -0.652143 0 
313 1 -1.25451 -1.71925 0 
315 1 -0.11333 1.25979 0 
317 1 0.956377 1.14016 0 
319 1 0.808909 -1.02615 0 
302 1 0.481989 0.442129 0 
321 1 1.18482 -1.00756 0 
304 1 -1.61391 0.54829 0 
323 1 1.69939 -0.763138 0 
325 1 -1.04611 0.595165 0 
306 1 0.875075 -0.0136342 0 
327 1 -1.34276 -1.26851 0 
308 1 1.41943 -0.519421 0 
310 1 0.223172 0.625707 0 
329 1 0.663988 1.32282 0 
331 1 -1.35264 -0.14314 0 
312 1 -0.156421 1.47598 0 
333 1 -1.01885 -0.987247 0 
314 1 0.614628 0.655317 0 
316 1 -0.635933 1.71579 0 
335 1 -0.236742 -0.601181 0 
337 1 -1.08367 -0.337657 0 
318 1 0.323688 0.795341 0 
339 1 -0.795287 -1.68125 0 
320 1 1.63134 1.52432 0 
322 1 1.14654 -0.0643089 0 
324 1 0.775478 1.32735 0 
326 1 -1.10808 0.451253 0 
328 1 -0.00100496 1.37735 0 
330 1 -1.19457 -0.978576 0 
332 1 0.336517 0.48153 0 
334 1 1.64023 1.0408 0 
336 1 0.225662 0.691672 0 
338 1 0.486262 -0.881826 0 
340 1 -0.486829 0.0287241 0 
341 1 -0.371013 -0.385858 0 
342 1 -0.325371 0.489924 0 
343 1 -1.21694 -0.668069 0 
344 1 -1.54286 0.103709 0 
345 1 -1.63327 -0.877905 0 
346 1 1.60873 1.10199 0 
347 1 -0.42614 -0.454579 0 
348 1 -0.0912801 -0.818606 0 
349 1 -1.32763 -1.23 0 
350 1 -0.933095 -1.69528 0 
351 1 1.64342 -0.91964 0 
352 1 -1.21974 0.975567 0 
353 1 0.389612 1.22543 0 
354 1 -0.402094 -0.328607 0 
355 1 -0.129912 1.19725 0 
356 1 0.604987 -1.17155 0 
357 1 0.514127 0.726457 0 
358 1 0.361506 -0.955326 0 
359 1 1.29078 0.0830652 0 
360 1 -0.698771 0.924261 0 
361 1 -0.191457 1.22555 0 
363 1 0.213241 0.904264 0 
365 1 0.995532 0.948995 0 
367 1 1.07221 1.00028 0 
369 1 -1.22964 1.70152 0 
371 1 -0.02639 -0.356544 0 
373 1 1.69267 1.38236 0 
375 1 0.987958 -0.965851 0 
377 1 -0.163539 0.250138 0 
379 1 -1.40274 0.637481 0 
362 1 -0.214506 0.445812 0 
381 1 -0.586639 1.28352 0 
364 1 -1.50202 0.454709 0 
383 1 -0.836502 -1.27982 0 
385 1 -1.01012 -0.703571 0 
366 1 1.50317 -0.290237 0 
387 1 0.702886 0.290548 0 
368 1 0.336023 -0.850388 0 
370 1 1.12841 1.72144 0 
389 1 0.666988 -0.511089 0 
391 1 -0.0169479 1.60741 0 
372 1 0.16156 -0.457838 0 
393 1 0.951692 -0.977121 0 
374 1 -0.897025 -1.49074 0 
376 1 -1.33291 0.666188 0 
395 1 1.16347 -1.13114 0 
397 1 -1.47378 1.43092 0 
378 1 0.623145 0.999511 0 
399 1 -0.485561 0.436073 0 
380 1 0.363875 0.543208 0 
382 1 1.08603 -0.0471559 0 
384 1 0.56245 1.38163 0 
386 1 -1.33833 0.0702482 0 
388 1 1.12639 -0.916287 0 
390 1 -0.223418 0.426139 0 
392 1 -0.534396 1.63656 0 
394 1 0.307877 -0.241464 0 
396 1 -0.663177 0.0844293 0 
398 1 -1.53447 -1.71271 0 
400 1 0.58517 0.12285 0 
401 1 -1.09952 1.43823 0 
402 1 0.60379 -0.39749 0 
403 1 -1.52082 1.45546 0 
404 1 0.822525 1.44242 0 
405 1 0.812798 1.64032 0 
406 1 -0.633808 -0.883515 0 
407 1 1.11679 1.4689 0 
408 1 -0.647725 -1.42396 0 
409 1 1.32513 -0.700369 0 
410 1 0.940393 0.672101 0 
411 1 -0.205657 -0.592412 0 
412 1 0.295218 -0.535929 0 
413 1 1.68886 -0.0359762 0 
414 1 -0.679472 1.37297 0 
415 1 0.78496 0.479181 0 
416 1 1.51712 0.817317 0 
417 1 -1.33478 0.438949 0 
418 1 0.300828 -0.288165 0 
419 1 -0.528744 -0.89427 0 
420 1 -0.115462 0.261664 0 
421 1 -0.982905 0.52379 0 
422 1 1.69617 0.985944 0 
423 1 -1.59788 -1.54895 0 
424 1 -0.546671 0.813869 0 
425 1 0.772605 -1.67789 0 
426 1 0.824871 -0.927994 0 
427 1 0.195563 -0.160849 0 
428 1 0.736683 0.607822 0 
429 1 0.907123 -1.22972 0 
430 1 -1.59159 -0.356477 0 
431 1 -0.515181 0.673715 0 
432 1 1.00164 -0.812471 0 
433 1 0.0107 -0.42167 0 
434 1 0.712278 1.40954 0 
435 1 -0.453446 0.353394 0 
436 1 -1.10792 -0.39428 0 
437 1 1.57362 -0.4505 0 
438 1 0.615864 0.523331 0 
439 1 -0.574353 -1.19722 0 
440 1 0.935781 -0.208516 0 
441 1 0.831262 -1.49274 0 
443 1 0.506566 -0.962826 0 
445 1 -0.337605 0.357583 0 
447 1 0.229203 0.991273 0 
449 1 -1.3832 1.72414 0 
451 1 -0.272859 -1.60515 0 
453 1 0.300693 0.931244 0 
455 1 0.118191 -1.44788 0 
457 1 0.662787 -1.45351 0 
459 1 -1.38948 0.57422 0 
442 1 -0.254499 0.474122 0 
461 1 -1.21488 -0.949776 0 
444 1 -0.266271 1.1499 0 
463 1 -0.881404 -0.162322 0 
465 1 -1.29091 -0.500669 0 
446 1 0.207464 1.32428 0 
467 1 0.964493 1.71486 0 
448 1 0.396804 0.204827 0 
450 1 -1.63482 1.01932 0 
469 1 -0.369308 0.398738 0 
471 1 -0.112526 0.840922 0 
452 1 -0.487262 -0.275879 0 
473 1 0.126062 -1.50887 0 
454 1 -0.371124 1.2315 0 
456 1 1.05477 0.423855 0 
475 1 1.50709 -0.583243 0 
477 1 -1.63264 -0.635292 0 
458 1 0.675579 1.08184 0 
479 1 0.173132 -1.01403 0 
460 1 0.074818 0.995272 0 
462 1 1.65629 -0.588518 0 
464 1 -1.084 1.00529 0 
466 1 0.312284 0.699699 0 
468 1 0.709332 0.656813 0 
470 1 -1.12692 0.735459 0 
472 1 0.074404 1.00283 0 
474 1 -0.0591526 -0.700446 0 
476 1 -0.728336 -1.40813 0 
478 1 -0.0648986 0.247785 0 
480 1 -1.35802 0.0439174 0 
481 1 0.377079 -0.435717 0 
482 1 1.58328 -1.66104 0 
483 1 -0.506927 0.0783444 0 
484 1 -0.00455316 0.95203 0 
485 1 -0.300132 -0.24506 0 
486 1 1.23296 0.00363638 0 
487 1 -0.217148 1.3231 0 
488 1 1.69574 0.679841 0 
489 1 0.612249 -1.01813 0 
490 1 -0.741337 -0.490597 0 
491 1 0.849356 -0.396208 0 
492 1 1.44457 0.426243 0 
493 1 -0.783654 -1.20146 0 
494 1 -1.67113 0.281664 0 
495 1 0.0770735 0.591443 0 
496 1 1.45135 -0.4205 0 
497 1 -0.60468 1.07395 0 
498 1 1.62152 0.0586878 0 
499 1 -0.545998 1.69207 0 
500 1 0.663831 -1.33005 0 
501 1 -0.417096 -1.6988 0 
503 1 -0.235044 0.0750356 0 
505 1 1.47755 0.999301 0 
507 1 0.269226 1.45552 0 
509 1 -0.555342 1.36405 0 
511 1 0.513797 -1.32566 0 
513 1 0.609882 0.993372 0 
515 1 -0.645149 0.0751974 0 
517 1 -0.380931 0.0969457 0 
519 1 -1.24505 0.564881 0 
502 1 -0.533781 1.51756 0 
521 1 -1.2214 0.941504 0 
504 1 -1.57464 -1.12788 0 
523 1 1.35726 -0.700564 0 
525 1 0.971571 -1.23772 0 
506 1 -0.970157 -1.16324 0 
527 1 -1.70456 -0.943242 0 
508 1 -0.634294 1.4028 0 
510 1 -0.698543 1.26463 0 
529 1 -1.65302 1.58048 0 
531 1 -0.200663 -0.247813 0 
512 1 0.535968 -1.37271 0 
533 1 0.604368 -1.12209 0 
514 1 -0.316628 1.14936 0 
516 1 0.62408 -0.711058 0 
535 1 0.276593 -0.106577 0 
537 1 -0.500336 -0.588598 0 
518 1 0.415261 0.431534 0 
539 1 0.145867 0.48816 0 
520 1 1.10325 0.327183 0 
522 1 0.623242 -0.856518 0 
524 1 0.855372 -0.279348 0 
526 1 -1.25679 1.71084 0 
528 1 -1.35019 -0.721046 0 
530 1 -0.497856 -0.701121 0 
532 1 1.67755 1.44555 0 
534 1 -0.211861 -0.383121 0 
536 1 1.37678 0.0368615 0 
538 1 0.222737 0.2773 0 
540 1 0.259614 0.125388 0 
541 1 1.37164 0.804518 0 
542 1 0.766886 -0.282945 0 
543 1 -0.99662 -0.110645 0 
544 1 0.621705 1.17686 0 
545 1 0.341458 -0.0731528 0 
546 1 -0.246661 -0.142938 0 
547 1 1.6615 -0.215738 0 
548 1 1.38815 -0.453279 0 
549 1 -0.510941 -1.20969 0 
550 1 -0.363045 1.18381 0 
551 1 1.4222 0.647996 0 
552 1 1.63506 1.25762 0 
553 1 0.0819109 -1.69518 0 
554 1 -0.0436911 1.4266 0 
555 1 -1.38023 -0.603413 0 
556 1 -0.706795 -1.59484 0 
557 1 -0.159189 0.222019 0 
558 1 -1.55987 -0.12513 0 
559 1 0.0752743 1.69918 0 
560 1 1.11694 0.400259 0 
561 1 0.0759554 -0.784729 0 
563 1 -0.441032 0.0281165 0 
565 1 0.446913 -0.478727 0 
567 1 0.418586 0.580128 0 
569 1 -1.13542 0.638199 0 
571 1 0.994606 -0.690388 0 
573 1 0.546982 -0.850328 0 
575 1 -0.572416 -0.00331299 0 
577 1 -1.67519 1.59646 0 
579 1 -1.41081 0.881868 0 
562 1 1.31181 1.71889 0 
581 1 -1.13388 -1.38242 0 
564 1 0.451417 -1.39438 0 
583 1 0.260804 -0.768006 0 
585 1 1.68747 0.936881 0 
566 1 1.06422 -0.93884 0 
587 1 0.539757 -0.380831 0 
568 1 0.192525 1.02016 0 
570 1 1.27655 1.15516 0 
589 1 1.22216 -0.341025 0 
591 1 0.857936 1.00583 0 
572 1 0.784912 -0.318481 0 
593 1 1.49822 0.0899913 0 
574 1 0.745653 1.60013 0 
576 1 0.581268 0.71161 0 
595 1 -0.865224 0.108213 0 
597 1 0.942811 -0.480793 0 
578 1 1.55256 0.899287 0 
599 1 -1.70915 -1.50063 0 
580 1 0.62022 0.604465 0 
582 1 0.980306 -0.697322 0 
584 1 -0.215972 0.179039 0 
586 1 -0.378153 1.51721 0 
588 1 -1.15848 -0.412102 0 
590 1 1.4078 -1.01756 0 
592 1 -1.47713 0.829014 0 
594 1 0.738654 -1.10081 0 
596 1 -1.10263 1.43334 0 
598 1 -1.285 1.32194 0 
600 1 -0.425034 0.723533 0 
601 1 -0.746779 -1.39717 0 
602 1 -1.34307 0.421224 0 
603 1 1.04613 1.57383 0 
604 1 0.374114 -1.51498 0 
605 1 0.287658 1.27534 0 
606 1 -0.219755 -0.698653 0 
607 1 0.776426 -0.14651 0 
608 1 -1.1506 -0.231853 0 
609 1 0.481265 -1.27841 0 
610 1 1.51651 1.0538 0 
611 1 -1.33593 -1.37224 0 
612 1 1.18756 -0.229642 0 
613 1 -1.65256 -1.19138 0 
614 1 -0.907112 -0.369188 0 
615 1 -1.26432 0.526465 0 
616 1 1.42007 -0.313389 0 
617 1 -0.258407 0.972493 0 
618 1 1.36846 -0.400016 0 
619 1 0.443357 -1.03603 0 
620 1 1.35056 1.72869 0 
621 1 -1.33467 -1.18925 0 
622 1 0.794449 -0.240706 0 
623 1 0.174789 -1.02407 0 
624 1 -0.0919537 -1.69108 0 
625 1 1.13947 -0.4754 0 
626 1 0.244192 -1.34462 0 
627 1 1.16158 -1.60365 0 
628 1 0.0216949 -0.223609 0 
629 1 0.178904 -1.5337 0 
630 1 -1.32361 0.117269 0 
631 1 -0.817134 0.325458 0 
632 1 -0.781363 -1.01877 0 
633 1 -1.23492 0.0269018 0 
634 1 -0.982956 -0.32689 0 
635 1 -1.54603 -0.9412 0 
636 1 0.915773 1.34748 0 
637 1 1.25665 1.17645 0 
638 1 0.960195 -0.864705 0 
639 1 -0.675233 -0.522703 0 
640 1 -0.657728 1.10822 0 
641 1 1.07699 1.29462 0 
643 1 -1.73199 1.37461 0 
645 1 -1.20312 1.72118 0 
647 1 -0.314227 -0.294412 0 
649 1 0.314213 -1.72138 0 
651 1 1.42031 0.339009 0 
653 1 0.119081 -0.408402 0 
655 1 1.69731 -0.849474 0 
657 1 0.33727 -0.804485 0 
659 1 -1.03475 -0.157011 0 
642 1 0.69074 1.63907 0 
661 1 -1.42233 -1.19753 0 
644 1 0.334396 -0.344953 0 
663 1 1.51844 -1.2712 0 
665 1 1.3104 -1.13162 0 
646 1 1.63467 1.72231 0 
667 1 0.139356 -0.980707 0 
648 1 1.53413 1.09947 0 
650 1 -1.70054 0.480677 0 
669 1 0.034125 -0.284344 0 
671 1 1.02876 -1.41557 0 
652 1 -1.5937 -0.993378 0 
673 1 -0.0117102 -0.917794 0 
654 1 0.512458 0.54926 0 
656 1 0.421636 -0.397836 0 
675 1 -0.473658 -1.50856 0 
677 1 1.00739 -1.68997 0 
658 1 -1.41088 -0.23041 0 
679 1 -1.44753 0.238839 0 
660 1 0.156189 -0.18279 0 
662 1 1.00941 0.830822 0 
664 1 1.25389 -0.0231053 0 
666 1 -1.06644 0.176545 0 
668 1 0.935848 0.907633 0 
670 1 -1.22343 1.64403 0 
672 1 1.62211 -0.459099 0 
674 1 0.965448 0.35134 0 
676 1 -1.05504 0.189731 0 
678 1 0.633489 0.695568 0 
680 1 0.2332 -1.48988 0 
681 1 0.327949 -0.731662 0 
682 1 1.32355 0.449346 0 
683 1 -0.818427 -0.511511 0 
684 1 1.41279 -0.777711 0 
685 1 -0.515581 0.923848 0 
686 1 -0.681391 0.465743 0 
687 1 0.098693 1.73042 0 
688 1 -0.177622 0.403779 0 
689 1 0.899357 0.58911 0 
690 1 1.18025 -1.21844 0 
691 1 -0.523561 -0.847119 0 
692 1 0.547853 -0.149369 0 
693 1 0.682254 -1.67373 0 
694 1 -0.42302 -0.25986 0 
695 1 -0.306785 -0.597664 0 
696 1 1.33353 1.0584 0 
697 1 0.275679 -1.53392 0 
698 1 0.149328 -0.550817 0 
699 1 -0.038127 0.904609 0 
700 1 1.49174 -0.838532 0 
701 1 -0.79918 -0.940031 0 
703 1 -0.68051 1.33074 0 
705 1 -1.08569 0.546025 0 
707 1 0.17573 0.853769 0 
709 1 -0.23361 -0.204968 0 
711 1 -0.00267969 1.09327 0 
713 1 -0.458001 0.414527 0 
715 1 0.400212 -1.72367 0 
717 1 0.940273 -1.34456 0 
719 1 -0.601564 1.1991 0 
702 1 -0.712237 0.988672 0 
721 1 -0.61488 0.296055 0 
704 1 0.846212 -0.998386 0 
723 1 -0.345916 -0.0188893 0 
725 1 -1.38207 -0.166475 0 
706 1 0.0314014 -0.783386 0 
727 1 -0.755439 -0.664793 0 
708 1 0.749452 -0.717739 0 
710 1 1.52362 -1.37991 0 
729 1 -0.925579 -0.752605 0 
731 1 -0.608754 -1.22164 0 
712 1 -0.537386 0.149865 0 
733 1 -0.176437 -0.584829 0 
714 1 1.35098 -1.63103 0 
716 1 -0.526289 -1.43145 0 
735 1 -0.770594 -1.13698 0 
737 1 -0.653453 -0.181393 0 
718 1 -0.0264689 -1.68155 0 
739 1 1.42974 -1.40135 0 
720 1 0.344489 -1.37522 0 
722 1 -0.0932356 1.14301 0 
724 1 -0.864066 -1.32193 0 
726 1 0.0336978 -0.499268 0 
728 1 -1.19129 -1.45142 0 
730 1 -1.31539 -1.02957 0 
732 1 -0.26779 -0.00497702 0 
734 1 1.6474 -0.262446 0 
736 1 0.852973 1.19072 0 
738 1 0.0826706 0.624655 0 
740 1 -1.5305 -1.04104 0 
741 1 0.752202 0.215502 0 
742 1 -1.50329 0.0208918 0 
743 1 1.10941 -0.776211 0 
744 1 0.154949 -0.125138 0 
745 1 0.65575 -1.31406 0 
746 1 -0.916519 -1.74013 0 
747 1 0.106565 1.68377 0 
748 1 0.270184 0.150095 0 
749 1 -1.13832 0.57287 0 
750 1 0.855717 -1.44989 0 
751 1 -0.0248152 1.73196 0 
752 1 0.828939 1.27055 0 
753 1 -1.24111 0.618656 0 
754 1 -1.35588 1.21699 0 
755 1 -1.10461 -0.579247 0 
756 1 -1.66399 -1.74246 0 
757 1 0.454517 -1.55132 0 
758 1 0.00759195 -0.415741 0 
759 1 0.965317 1.61916 0 
760 1 -0.472586 -0.906093 0 
761 1 -1.26889 0.400088 0 
763 1 1.284 1.02311 0 
765 1 1.73082 1.56597 0 
767 1 0.869256 -0.295494 0 
769 1 0.890055 0.993941 0 
771 1 -0.575803 -1.18969 0 
773 1 -0.182353 0.997654 0 
775 1 0.934072 -1.06979 0 
777 1 -1.12274 1.27601 0 
779 1 1.04542 0.0202015 0 
762 1 1.06127 -1.73911 0 
781 1 -0.524159 -0.456465 0 
764 1 0.644341 -1.49254 0 
783 1 -0.405261 -1.32142 0 
785 1 -1.72884 -1.4375 0 
766 1 1.21519 0.925666 0 
787 1 -1.59928 -0.747274 0 
768 1 -1.69247 0.31493 0 
770 1 1.382 0.710301 0 
789 1 0.305576 -0.58814 0 
791 1 -0.503354 0.931672 0 
772 1 1.21314 1.20429 0 
793 1 1.09357 1.19182 0 
774 1 -1.5471 -1.50139 0 
776 1 -0.170534 1.10787 0 
795 1 1.4742 0.490433 0 
797 1 -0.917754 -1.60242 0 
778 1 -0.625845 0.607017 0 
799 1 -1.36621 1.65425 0 
780 1 -0.0196186 -1.48533 0 
782 1 -0.485264 -1.52469 0 
784 1 -1.19691 1.61293 0 
786 1 -1.11074 1.00638 0 
788 1 -0.946888 -0.166266 0 
790 1 1.69684 -1.70947 0 
792 1 -0.730439 1.55992 0 
794 1 1.1847 0.445504 0 
796 1 1.64795 -1.54467 0 
798 1 -0.556977 -1.72257 0 
800 1 1.25849 0.717268 0 
801 1 1.70361 0.62226 0 
802 1 1.06795 -0.98867 0 
803 1 1.39128 -0.0362676 0 
804 1 -0.860877 0.0276494 0 
805 1 0.947325 -1.23372 0 
806 1 1.45442 -1.20875 0 
807 1 -0.41451 -0.0369929 0 
808 1 1.19259 0.689564 0 
809 1 0.287701 -1.49196 0 
810 1 0.305877 0.984501 0 
811 1 1.18239 -0.0933443 0 
812 1 -1.53634 1.71127 0 
813 1 -0.498822 0.470931 0 
814 1 -0.312553 -0.0277256 0 
815 1 -1.01277 0.117266 0 
816 1 0.636574 0.318025 0 
817 1 1.19944 0.805042 0 
818 1 0.00649239 -1.48163 0 
819 1 1.01866 -0.370581 0 
820 1 1.12747 -0.179598 0 
821 1 -0.937904 1.06891 0 
822 1 0.370423 -0.850061 0 
823 1 0.130293 -0.0578896 0 
824 1 0.185967 -1.23246 0 
825 1 -0.179958 -0.555203 0 
826 1 0.867273 1.20224 0 
827 1 -0.332419 0.4535 0 
828 1 0.0973026 -0.740826 0 
829 1 0.912132 -0.639165 0 
830 1 -0.812415 -0.464242 0 
831 1 0.72947 1.27183 0 
832 1 -0.998479 -0.0121194 0 
833 1 -1.56369 -1.7029 0 
834 1 -1.57236 -1.16514 0 
835 1 -1.4972 1.27424 0 
836 1 -1.26978 -0.698898 0 
837 1 -0.0905617 0.806035 0 
838 1 0.291607 1.46953 0 
839 1 1.23245 -1.5265 0 
840 1 0.40132 -0.528989 0 
841 1 0.239357 0.982761 0 
843 1 -1.48759 -0.87386 0 
845 1 0.126721 -0.874418 0 
847 1 0.498321 -0.214998 0 
849 1 -1.28504 0.600796 0 
851 1 0.326458 -1.40927 0 
853 1 -0.226945 0.354364 0 
855 1 1.5471 -0.276656 0 
857 1 1.07621 -1.36477 0 
859 1 -0.100042 1.69108 0 
842 1 1.3678 -1.0756 0 
861 1 -1.14681 0.754436 0 
844 1 0.93339 1.39414 0 
863 1 -0.0327451 0.802816 0 
865 1 -0.25161 0.275562 0 
846 1 1.14585 -1.22152 0 
867 1 1.64518 0.681699 0 
848 1 1.09019 0.18712 0 
850 1 0.74836 -1.66743 0 
869 1 0.358949 1.33373 0 
871 1 -0.903489 1.31394 0 
852 1 1.11409 1.26635 0 
873 1 1.2658 1.58395 0 
854 1 -0.280907 -1.03247 0 
856 1 0.256521 0.373699 0 
875 1 -0.168135 -0.372179 0 
877 1 1.03325 0.932784 0 
858 1 0.695798 -0.425373 0 
879 1 -0.209863 -1.62967 0 
860 1 -1.10833 -0.307289 0 
862 1 -0.935645 0.717939 0 
864 1 -0.173775 -1.11378 0 
866 1 0.874719 0.973756 0 
868 1 -1.31681 -0.402264 0 
870 1 0.373037 1.27838 0 
872 1 -1.51229 -1.55682 0 
874 1 0.185072 1.13969 0 
876 1 -1.4187 0.686573 0 
878 1 -0.774041 0.138381 0 
880 1 -1.42114 1.36035 0 
881 1 1.15567 0.0863912 0 
882 1 -1.01829 1.44016 0 
883 1 -1.55422 0.755765 0 
884 1 -0.593075 1.0729 0 
885 1 0.862539 -1.73745 0 
886 1 -1.63055 -0.350406 0 
887 1 -0.30605 1.30272 0 
888 1 -1.56301 -0.753339 0 
889 1 -1.07256 -1.70181 0 
890 1 1.56272 1.07046 0 
891 1 -0.612969 1.07007 0 
892 1 -1.6472 -1.58217 0 
893 1 1.16234 0.718421 0 
894 1 1.35455 -0.929393 0 
895 1 -0.129301 1.0158 0 
896 1 -0.901454 0.690548 0 
897 1 -0.0988626 0.609004 0 
898 1 -0.25806 -0.153343 0 
899 1 1.04333 -0.264657 0 
900 1 -0.629667 -0.94284 0 
901 1 -1.50829 -0.553305 0 
903 1 0.218165 0.0665574 0 
905 1 -0.561755 1.55841 0 
907 1 -0.013349 -0.598725 0 
909 1 -0.0508377 -0.26793 0 
911 1 1.51016 -1.2126 0 
913 1 -0.971078 0.772506 0 
915 1 -1.3062 0.245216 0 
917 1 -1.06876 -0.48641 0 
919 1 -0.936383 -1.23582 0 
902 1 1.59519 -0.00642078 0 
921 1 -1.34049 -1.34071 0 
904 1 1.18555 0.72671 0 
923 1 1.38946 0.703294 0 
925 1 -0.0498519 -1.11283 0 
906 1 -0.823568 0.149048 0 
927 1 0.537016 -1.17478 0 
908 1 0.735676 1.0991 0 
910 1 0.922651 -1.47332 0 
929 1 1.22345 0.441427 0 
931 1 0.422891 -0.201903 0 
912 1 0.93657 -0.876475 0 
933 1 0.436026 1.14265 0 
914 1 -0.559054 1.67821 0 
916 1 -1.05462 0.334327 0 
935 1 1.59444 1.28311 0 
937 1 1.2335 -1.3189 0 
918 1 -0.332272 -0.575046 0 
939 1 0.840837 -0.767115 0 
920 1 1.20865 -0.997054 0 
922 1 1.60068 1.68896 0 
924 1 -1.05976 0.892531 0 
926 1 0.251159 0.810389 0 
928 1 0.609931 -1.67526 0 
930 1 -1.52 1.17849 0 
932 1 -0.360499 -1.30729 0 
934 1 -1.3836 -1.5516 0 
936 1 -1.22499 -0.112582 0 
938 1 1.23688 -0.338871 0 
940 1 1.01616 -0.613235 0 
941 1 -0.320657 -0.390137 0 
942 1 0.880265 0.141651 0 
943 1 -0.782947 0.228722 0 
944 1 1.73007 -0.536674 0 
945 1 -1.43125 -1.38626 0 
946 1 -0.140989 -0.375072 0 
947 1 -0.944142 0.709241 0 
948 1 1.2229 1.65438 0 
949 1 -1.34889 0.146343 0 
950 1 0.525738 0.829345 0 
951 1 0.0312497 0.149619 0 
952 1 -0.172088 -0.632001 0 
953 1 -1.12116 0.0184616 0 
954 1 0.524672 0.328086 0 
955 1 -1.27845 -0.1724 0 
956 1 -0.241781 -1.70902 0 
957 1 -0.979118 1.48364 0 
958 1 0.49812 -0.119671 0 
959 1 -1.024 -0.522676 0 
960 1 0.902773 -1.1989 0 
961 1 -0.087993 -1.29941 0 
963 1 1.12051 1.19242 0 
965 1 1.50595 1.17708 0 
967 1 0.156339 -1.13425 0 
969 1 -1.42264 0.619823 0 
971 1 -1.67299 0.289529 0 
973 1 -1.36194 0.332071 0 
975 1 0.157047 0.304354 0 
977 1 -0.63787 0.511689 0 
979 1 -0.272194 -0.882192 0 
962 1 0.364578 -1.58117 0 
981 1 -0.845724 0.442241 0 
964 1 0.818655 -0.911365 0 
983 1 -1.11907 0.291408 0 
985 1 0.802218 1.46215 0 
966 1 -1.67742 -1.10031 0 
987 1 -1.55014 -0.363584 0 
968 1 0.510887 -1.47459 0 
970 1 1.16534 -1.06271 0 
989 1 0.0236639 1.52241 0 
991 1 -0.283372 -0.664067 0 
972 1 0.875464 -0.443563 0 
993 1 0.0130959 1.53325 0 
974 1 0.444025 -0.25539 0 
976 1 -1.37479 0.224822 0 
995 1 1.44858 1.70858 0 
997 1 0.916727 -0.0273974 0 
978 1 -0.766273 -1.64384 0 
999 1 -0.791234 0.258127 0 
980 1 -1.19617 0.0284132 0 
982 1 0.316959 -0.837835 0 
984 1 0.439794 -1.71242 0 
986 1 1.67428 -1.34929 0 
988 1 0.335191 -0.901697 0 
990 1 -0.921642 -0.758389 0 
992 1 1.50783 1.46325 0 
994 1 -0.817168 -0.248903 0 
996 1 -0.151798 -0.938236 0 
998 1 -0.230808 1.5985 0 
1000 1 0.530535 1.34649 0 
1001 1 1.49319 -0.822291 0 
1002 1 -1.46717 0.931231 0 
1003 1 0.0659706 -1.42195 0 
1004 1 -1.6641 0.0051894 0 
1005 1 0.178652 1.20452 0 
1006 1 0.972902 0.234781 0 
1007 1 -0.183686 -0.523037 0 
1008 1 1.17542 1.10365 0 
1009 1 1.11959 -0.24288 0 
1010 1 0.856351 -1.24075 0 
1011 1 -1.29212 0.103295 0 
1012 1 -1.64328 1.50942 0 
1013 1 0.362107 -1.31515 0 
1014 1 0.894587 0.529493 0 
1015 1 -0.855206 1.29452 0 
1016 1 1.57239 -0.167775 0 
1017 1 -0.673504 0.665018 0 
1018 1 0.79454 1.27295 0 
1019 1 -0.64877 -1.57497 0 
1020 1 -0.775935 -0.341325 0 
1021 1 -1.1961 1.2539 0 
1022 1 0.909915 0.416576 0 
1023 1 0.202368 -0.726885 0 
1024 1 1.69446 0.0239771 0 
1025 1 0.165535 0.168445 0 
1026 1 -0.841051 -1.11069 0 
1027 1 -1.47755 0.743323 0 
1028 1 -0.385325 -0.615737 0 
1029 1 -1.18359 -1.00248 0 
1030 1 -1.51731 1.13479 0 
1031 1 -0.480202 -0.0482372 0 
1032 1 0.976352 -0.978895 0 
1033 1 0.652219 -1.44589 0 
1034 1 0.217816 1.17089 0 
1035 1 0.909537 1.02687 0 
1036 1 1.35135 1.05354 0 
1037 1 -1.32523 0.784701 0 
1038 1 1.16827 -0.498664 0 
1039 1 0.680756 1.02361 0 
1040 1 -1.31887 -0.329329 0 
1041 1 0.0117157 -0.765095 0 
1043 1 -0.757349 -1.42057 0 
1045 1 -0.749173 0.156965 0 
1047 1 -0.156462 0.785772 0 
1049 1 -0.310278 -0.0995203 0 
1051 1 -1.13035 -1.32662 0 
1053 1 0.582212 -0.833582 0 
1055 1 -0.397381 -1.23355 0 
1057 1 1.67928 -0.878431 0 
1059 1 0.0132823 1.18393 0 
1042 1 -0.408116 -0.53332 0 
1061 1 -1.6507 -1.23449 0 
1044 1 -1.37891 0.705834 0 
1063 1 1.15113 0.370552 0 
1065 1 -0.902372 -0.79935 0 
1046 1 1.51373 -0.34398 0 
1067 1 -1.57677 1.45343 0 
1048 1 -0.148214 0.0918894 0 
1050 1 -1.73041 0.0100686 0 
1069 1 1.6972 0.883838 0 
1071 1 0.701669 0.732544 0 
1052 1 -1.48883 -0.735714 0 
1073 1 -0.128648 1.54703 0 
1054 1 0.243429 -0.231529 0 
1056 1 -1.05467 -0.596738 0 
1075 1 1.68412 0.427086 0 
1077 1 1.28713 1.43895 0 
1058 1 -0.293708 -0.237052 0 
1079 1 1.59493 -0.931375 0 
1060 1 -1.24686 1.49904 0 
1062 1 -1.69743 0.545237 0 
1064 1 -0.778871 -0.927207 0 
1066 1 -1.72411 1.40733 0 
1068 1 -1.11919 1.68377 0 
1070 1 -1.41596 1.48739 0 
1072 1 -0.156369 -1.14824 0 
1074 1 -1.35903 0.489724 0 
1076 1 -0.165268 -0.933412 0 
1078 1 -1.41579 0.713195 0 
1080 1 0.51689 -1.59908 0 
1081 1 1.13614 -0.654986 0 
1082 1 -1.62265 -0.00690645 0 
1083 1 0.0685337 -0.137449 0 
1084 1 -0.247248 0.448011 0 
1085 1 1.28284 -1.02972 0 
1086 1 -0.00551024 -1.20213 0 
1087 1 0.352096 1.09289 0 
1088 1 0.553671 0.111883 0 
1089 1 -1.59293 1.42148 0 
1090 1 1.73237 -0.260706 0 
1091 1 1.37823 0.10304 0 
1092 1 -0.231605 -1.33981 0 
1093 1 1.46497 -1.48642 0 
1094 1 0.802777 0.407341 0 
1095 1 1.58007 -0.0104191 0 
1096 1 -0.255656 -1.559 0 
1097 1 0.910804 1.43141 0 
1098 1 -0.574031 0.722996 0 
1099 1 -0.541819 -1.21211 0 